Delaney_5.mol2                                                          
FOpt      RHF                                                         6-31G(d)            
Number of atoms                            I                9
Info1-9                                    I   N=           9
          20          19           0           0           0         110
           2           1           2
Charge                                     I                0
Multiplicity                               I                1
Number of electrons                        I               44
Number of alpha electrons                  I               22
Number of beta electrons                   I               22
Number of basis functions                  I               87
Number of independent functions            I               87
Number of point charges in /Mol/           I                0
Number of translation vectors              I                0
Atomic numbers                             I   N=           9
           6           1           6           1           6           1
          16           6           1
Nuclear charges                            R   N=           9
  6.00000000E+00  1.00000000E+00  6.00000000E+00  1.00000000E+00  6.00000000E+00
  1.00000000E+00  1.60000000E+01  6.00000000E+00  1.00000000E+00
Current cartesian coordinates              R   N=          27
  1.35777980E+00 -2.37758082E+00  9.86076132E-32  2.48622608E+00 -4.06346828E+00
 -9.86076132E-32 -1.35778196E+00 -2.37757949E+00  9.86076132E-32 -2.48622180E+00
 -4.06347437E+00  9.86076132E-32 -2.33158147E+00 -2.95837095E-02  0.00000000E+00
 -4.28421534E+00  5.02046275E-01  1.97215226E-31 -1.73472348E-18  2.25055088E+00
  0.00000000E+00  2.33158234E+00 -2.95834323E-02  0.00000000E+00  4.28421880E+00
  5.02046965E-01  1.97215226E-31
Force Field                                I                0
Int Atom Types                             I   N=           9
           0           0           0           0           0           0
           0           0           0
MM charges                                 R   N=           9
  0.00000000E+00  0.00000000E+00  0.00000000E+00  0.00000000E+00  0.00000000E+00
  0.00000000E+00  0.00000000E+00  0.00000000E+00  0.00000000E+00
Integer atomic weights                     I   N=           9
          12           1          12           1          12           1
          32          12           1
Real atomic weights                        R   N=           9
  1.20000000E+01  1.00782504E+00  1.20000000E+01  1.00782504E+00  1.20000000E+01
  1.00782504E+00  3.19720718E+01  1.20000000E+01  1.00782504E+00
Atom fragment info                         I   N=           9
           0           0           0           0           0           0
           0           0           0
Atom residue num                           I   N=           9
           0           0           0           0           0           0
           0           0           0
Nuclear spins                              I   N=           9
           0           1           0           1           0           1
           0           0           1
Nuclear ZEff                               R   N=           9
 -3.60000000E+00 -1.00000000E+00 -3.60000000E+00 -1.00000000E+00 -3.60000000E+00
 -1.00000000E+00 -1.36000000E+01 -3.60000000E+00 -1.00000000E+00
Nuclear ZNuc                               R   N=           9
  6.00000000E+00  1.00000000E+00  6.00000000E+00  1.00000000E+00  6.00000000E+00
  1.00000000E+00  1.60000000E+01  6.00000000E+00  1.00000000E+00
Nuclear QMom                               R   N=           9
  0.00000000E+00  0.00000000E+00  0.00000000E+00  0.00000000E+00  0.00000000E+00
  0.00000000E+00  0.00000000E+00  0.00000000E+00  0.00000000E+00
Nuclear GFac                               R   N=           9
  0.00000000E+00  2.79284600E+00  0.00000000E+00  2.79284600E+00  0.00000000E+00
  2.79284600E+00  0.00000000E+00  0.00000000E+00  2.79284600E+00
MicOpt                                     I   N=           9
          -1          -1          -1          -1          -1          -1
          -1          -1          -1
Number of contracted shells                I               29
Number of primitive shells                 I               77
Pure/Cartesian d shells                    I                1
Pure/Cartesian f shells                    I                0
Highest angular momentum                   I                2
Largest degree of contraction              I                6
Shell types                                I   N=          29
           0          -1          -1           2           0           0
           0          -1          -1           2           0           0
           0          -1          -1           2           0           0
           0          -1          -1          -1           2           0
          -1          -1           2           0           0
Number of primitives per shell             I   N=          29
           6           3           1           1           3           1
           6           3           1           1           3           1
           6           3           1           1           3           1
           6           6           3           1           1           6
           3           1           1           3           1
Shell to atom map                          I   N=          29
           1           1           1           1           2           2
           3           3           3           3           4           4
           5           5           5           5           6           6
           7           7           7           7           7           8
           8           8           8           9           9
Primitive exponents                        R   N=          77
  3.04752488E+03  4.57369518E+02  1.03948685E+02  2.92101553E+01  9.28666296E+00
  3.16392696E+00  7.86827235E+00  1.88128854E+00  5.44249258E-01  1.68714478E-01
  8.00000000E-01  1.87311370E+01  2.82539436E+00  6.40121692E-01  1.61277759E-01
  3.04752488E+03  4.57369518E+02  1.03948685E+02  2.92101553E+01  9.28666296E+00
  3.16392696E+00  7.86827235E+00  1.88128854E+00  5.44249258E-01  1.68714478E-01
  8.00000000E-01  1.87311370E+01  2.82539436E+00  6.40121692E-01  1.61277759E-01
  3.04752488E+03  4.57369518E+02  1.03948685E+02  2.92101553E+01  9.28666296E+00
  3.16392696E+00  7.86827235E+00  1.88128854E+00  5.44249258E-01  1.68714478E-01
  8.00000000E-01  1.87311370E+01  2.82539436E+00  6.40121692E-01  1.61277759E-01
  2.19171000E+04  3.30149000E+03  7.54146000E+02  2.12711000E+02  6.79896000E+01
  2.30515000E+01  4.23735000E+02  1.00710000E+02  3.21599000E+01  1.18079000E+01
  4.63110000E+00  1.87025000E+00  2.61584000E+00  9.22167000E-01  3.41287000E-01
  1.17167000E-01  6.50000000E-01  3.04752488E+03  4.57369518E+02  1.03948685E+02
  2.92101553E+01  9.28666296E+00  3.16392696E+00  7.86827235E+00  1.88128854E+00
  5.44249258E-01  1.68714478E-01  8.00000000E-01  1.87311370E+01  2.82539436E+00
  6.40121692E-01  1.61277759E-01
Contraction coefficients                   R   N=          77
  1.83473713E-03  1.40373228E-02  6.88426223E-02  2.32184443E-01  4.67941348E-01
  3.62311985E-01 -1.19332420E-01 -1.60854152E-01  1.14345644E+00  1.00000000E+00
  1.00000000E+00  3.34946043E-02  2.34726953E-01  8.13757326E-01  1.00000000E+00
  1.83473713E-03  1.40373228E-02  6.88426223E-02  2.32184443E-01  4.67941348E-01
  3.62311985E-01 -1.19332420E-01 -1.60854152E-01  1.14345644E+00  1.00000000E+00
  1.00000000E+00  3.34946043E-02  2.34726953E-01  8.13757326E-01  1.00000000E+00
  1.83473713E-03  1.40373228E-02  6.88426223E-02  2.32184443E-01  4.67941348E-01
  3.62311985E-01 -1.19332420E-01 -1.60854152E-01  1.14345644E+00  1.00000000E+00
  1.00000000E+00  3.34946043E-02  2.34726953E-01  8.13757326E-01  1.00000000E+00
  1.86924085E-03  1.42303065E-02  6.96962317E-02  2.38487108E-01  4.83307220E-01
  3.38074154E-01 -2.37677050E-03 -3.16930067E-02 -1.13317024E-01  5.60900118E-02
  5.92255124E-01  4.55006095E-01 -2.50373114E-01  6.69567631E-02  1.05450627E+00
  1.00000000E+00  1.00000000E+00  1.83473713E-03  1.40373228E-02  6.88426223E-02
  2.32184443E-01  4.67941348E-01  3.62311985E-01 -1.19332420E-01 -1.60854152E-01
  1.14345644E+00  1.00000000E+00  1.00000000E+00  3.34946043E-02  2.34726953E-01
  8.13757326E-01  1.00000000E+00
P(S=P) Contraction coefficients            R   N=          77
  0.00000000E+00  0.00000000E+00  0.00000000E+00  0.00000000E+00  0.00000000E+00
  0.00000000E+00  6.89990666E-02  3.16423961E-01  7.44308291E-01  1.00000000E+00
  0.00000000E+00  0.00000000E+00  0.00000000E+00  0.00000000E+00  0.00000000E+00
  0.00000000E+00  0.00000000E+00  0.00000000E+00  0.00000000E+00  0.00000000E+00
  0.00000000E+00  6.89990666E-02  3.16423961E-01  7.44308291E-01  1.00000000E+00
  0.00000000E+00  0.00000000E+00  0.00000000E+00  0.00000000E+00  0.00000000E+00
  0.00000000E+00  0.00000000E+00  0.00000000E+00  0.00000000E+00  0.00000000E+00
  0.00000000E+00  6.89990666E-02  3.16423961E-01  7.44308291E-01  1.00000000E+00
  0.00000000E+00  0.00000000E+00  0.00000000E+00  0.00000000E+00  0.00000000E+00
  0.00000000E+00  0.00000000E+00  0.00000000E+00  0.00000000E+00  0.00000000E+00
  0.00000000E+00  4.06100998E-03  3.06812999E-02  1.30451999E-01  3.27204999E-01
  4.52850998E-01  2.56041999E-01 -1.45104895E-02  3.10262776E-01  7.54482456E-01
  1.00000000E+00  0.00000000E+00  0.00000000E+00  0.00000000E+00  0.00000000E+00
  0.00000000E+00  0.00000000E+00  0.00000000E+00  6.89990666E-02  3.16423961E-01
  7.44308291E-01  1.00000000E+00  0.00000000E+00  0.00000000E+00  0.00000000E+00
  0.00000000E+00  0.00000000E+00
Coordinates of each shell                  R   N=          87
  1.35777980E+00 -2.37758082E+00 -1.97215226E-31  1.35777980E+00 -2.37758082E+00
 -1.97215226E-31  1.35777980E+00 -2.37758082E+00 -1.97215226E-31  1.35777980E+00
 -2.37758082E+00 -1.97215226E-31  2.48622608E+00 -4.06346828E+00 -2.95822839E-31
  2.48622608E+00 -4.06346828E+00 -2.95822839E-31 -1.35778196E+00 -2.37757949E+00
  4.93038066E-32 -1.35778196E+00 -2.37757949E+00  4.93038066E-32 -1.35778196E+00
 -2.37757949E+00  4.93038066E-32 -1.35778196E+00 -2.37757949E+00  4.93038066E-32
 -2.48622180E+00 -4.06347437E+00  1.47911420E-31 -2.48622180E+00 -4.06347437E+00
  1.47911420E-31 -2.33158147E+00 -2.95837095E-02  1.47911420E-31 -2.33158147E+00
 -2.95837095E-02  1.47911420E-31 -2.33158147E+00 -2.95837095E-02  1.47911420E-31
 -2.33158147E+00 -2.95837095E-02  1.47911420E-31 -4.28421534E+00  5.02046275E-01
  2.95822839E-31 -4.28421534E+00  5.02046275E-01  2.95822839E-31 -3.37528378E-32
  2.25055088E+00  9.86076132E-32 -3.37528378E-32  2.25055088E+00  9.86076132E-32
 -3.37528378E-32  2.25055088E+00  9.86076132E-32 -3.37528378E-32  2.25055088E+00
  9.86076132E-32 -3.37528378E-32  2.25055088E+00  9.86076132E-32  2.33158234E+00
 -2.95834323E-02 -1.97215226E-31  2.33158234E+00 -2.95834323E-02 -1.97215226E-31
  2.33158234E+00 -2.95834323E-02 -1.97215226E-31  2.33158234E+00 -2.95834323E-02
 -1.97215226E-31  4.28421880E+00  5.02046965E-01 -1.97215226E-31  4.28421880E+00
  5.02046965E-01 -1.97215226E-31
Constraint Structure                       R   N=          27
  1.34636978E+00 -2.41366458E+00 -2.46519033E-32  2.50745825E+00 -4.09864251E+00
  4.93038066E-32 -1.34651364E+00 -2.41264606E+00  9.86076132E-32 -2.50980745E+00
 -4.09708301E+00  0.00000000E+00 -2.32330875E+00  5.88045973E-04 -4.93038066E-32
 -4.28887788E+00  5.56197930E-01  0.00000000E+00  3.37703882E-32  2.25261304E+00
  0.00000000E+00  2.32356611E+00 -5.01162425E-04  0.00000000E+00  4.29054612E+00
  5.55061486E-01  9.86076132E-32
Num ILSW                                   I              100
ILSW                                       I   N=         100
           0           1           0           0           2           0
           0           0           0           0           0          -1
           0           0           0           0           2           0
           0           0           1           0           1           0
           1           0           0           0           0           0
           0           0      100000           0          -1           0
           0           0           0           0           0           0
           0           0           0           1           0           0
           0           0           1           0           0           0
           0           0           4          41           0           0
           0           0           0           0           0           0
           0           0           0           0           0           0
           0           0           0           0           0           0
           0           0           0           0           0           0
           0           0           0           0           0           0
           0           0           0           0           0           0
           0           0           0           0
Num RLSW                                   I               41
RLSW                                       R   N=          41
  1.00000000E+00  1.00000000E+00  1.00000000E+00  1.00000000E+00  1.00000000E+00
  0.00000000E+00  0.00000000E+00  1.00000000E+00  0.00000000E+00  0.00000000E+00
  0.00000000E+00  0.00000000E+00  1.00000000E+00  0.00000000E+00  0.00000000E+00
  0.00000000E+00  0.00000000E+00  1.00000000E+00  0.00000000E+00  0.00000000E+00
  0.00000000E+00  0.00000000E+00  1.00000000E+00  0.00000000E+00  0.00000000E+00
  0.00000000E+00  0.00000000E+00  1.00000000E+00  0.00000000E+00  0.00000000E+00
  0.00000000E+00  0.00000000E+00  1.00000000E+00  0.00000000E+00  0.00000000E+00
  0.00000000E+00  0.00000000E+00  0.00000000E+00  1.00000000E+00  1.00000000E+00
  0.00000000E+00
MxBond                                     I                3
NBond                                      I   N=           9
           3           1           3           1           3           1
           2           3           1
IBond                                      I   N=          27
           2           3           8           1           0           0
           1           4           5           3           0           0
           3           6           7           5           0           0
           5           8           0           1           7           9
           8           0           0
RBond                                      R   N=          27
  1.00000000E+00  1.50000000E+00  1.50000000E+00  1.00000000E+00  0.00000000E+00
  0.00000000E+00  1.50000000E+00  1.00000000E+00  1.50000000E+00  1.00000000E+00
  0.00000000E+00  0.00000000E+00  1.50000000E+00  1.00000000E+00  1.00000000E+00
  1.00000000E+00  0.00000000E+00  0.00000000E+00  1.00000000E+00  1.00000000E+00
  0.00000000E+00  1.50000000E+00  1.00000000E+00  1.00000000E+00  1.00000000E+00
  0.00000000E+00  0.00000000E+00
Virial Ratio                               R      2.000497943971037E+00
SCF Energy                                 R     -5.512903517586757E+02
Total Energy                               R     -5.512903517586757E+02
RMS Force                                  R      2.418161467979288E-05
RMS Density                                R      8.604650551240584E-09
External E-field                           R   N=          35
  0.00000000E+00  0.00000000E+00  0.00000000E+00  0.00000000E+00  0.00000000E+00
  0.00000000E+00  0.00000000E+00  0.00000000E+00  0.00000000E+00  0.00000000E+00
  0.00000000E+00  0.00000000E+00  0.00000000E+00  0.00000000E+00  0.00000000E+00
  0.00000000E+00  0.00000000E+00  0.00000000E+00  0.00000000E+00  0.00000000E+00
  0.00000000E+00  0.00000000E+00  0.00000000E+00  0.00000000E+00  0.00000000E+00
  0.00000000E+00  0.00000000E+00  0.00000000E+00  0.00000000E+00  0.00000000E+00
  0.00000000E+00  0.00000000E+00  0.00000000E+00  0.00000000E+00  0.00000000E+00
IOpCl                                      I                0
IROHF                                      I                0
Alpha Orbital Energies                     R   N=          87
 -9.19659327E+01 -1.12573511E+01 -1.12573306E+01 -1.12346465E+01 -1.12337174E+01
 -8.97653978E+00 -6.65912484E+00 -6.65817318E+00 -6.65653642E+00 -1.17049375E+00
 -9.87594716E-01 -9.78983409E-01 -7.65535957E-01 -7.48312067E-01 -6.96988752E-01
 -5.79284263E-01 -5.44891070E-01 -5.24562031E-01 -5.18359714E-01 -4.69606910E-01
 -3.40541656E-01 -3.28570382E-01  1.37743262E-01  1.89420342E-01  2.38140288E-01
  2.45619535E-01  2.67604879E-01  3.02771452E-01  3.22932084E-01  3.26296279E-01
  4.13040763E-01  4.58479123E-01  4.73457212E-01  5.46261701E-01  5.86336130E-01
  6.36551203E-01  6.46771331E-01  6.89164052E-01  7.43009351E-01  7.76739434E-01
  8.08077231E-01  8.25161692E-01  8.51404563E-01  8.98090344E-01  9.09387427E-01
  1.02604088E+00  1.04676739E+00  1.06162096E+00  1.06454603E+00  1.08977320E+00
  1.11924730E+00  1.13010060E+00  1.17645585E+00  1.18005109E+00  1.25587346E+00
  1.29390407E+00  1.31742570E+00  1.34450208E+00  1.37466614E+00  1.43789453E+00
  1.58808315E+00  1.63399193E+00  1.69214207E+00  1.72458859E+00  1.78647444E+00
  2.02269519E+00  2.13734900E+00  2.16437149E+00  2.18064535E+00  2.28918995E+00
  2.36954553E+00  2.53121527E+00  2.54717196E+00  2.58644672E+00  2.58978207E+00
  2.59985288E+00  2.81091070E+00  2.85759178E+00  2.94436621E+00  3.02183422E+00
  3.25976482E+00  3.38615178E+00  4.36690916E+00  4.53675016E+00  4.54211695E+00
  4.73962421E+00  4.86435823E+00
Alpha MO coefficients                      R   N=        7569
  6.13615477E-06  3.63440525E-07 -2.67762920E-05 -2.64644890E-05  0.00000000E+00
 -1.99184973E-04  1.17415963E-04 -1.93678790E-04  0.00000000E+00  2.76835596E-05
  3.17464506E-06  5.51208838E-06 -1.48151933E-05  0.00000000E+00  0.00000000E+00
 -2.62442867E-05 -6.92870849E-05  6.13615221E-06  3.63392496E-07  2.67762845E-05
 -2.64644023E-05  0.00000000E+00 -1.99186922E-04 -1.17416566E-04 -1.93681912E-04
  0.00000000E+00  2.76836150E-05  3.17453422E-06  5.51209980E-06  1.48149973E-05
  0.00000000E+00  0.00000000E+00 -2.62443348E-05 -6.92884820E-05  1.23442619E-05
  9.64945915E-05  3.99419737E-05  4.50897884E-05  0.00000000E+00  9.84657080E-05
  2.60999469E-04 -5.47195765E-05  0.00000000E+00 -9.44057772E-06 -9.78436122E-07
 -1.40103536E-05 -5.66103803E-05  0.00000000E+00  0.00000000E+00  8.07223073E-06
  3.09996773E-05  9.96255567E-01  1.42602641E-02 -3.55584631E-12 -8.80041482E-05
  0.00000000E+00 -1.99731811E-02  7.95030583E-11  1.55790885E-04  0.00000000E+00
  2.40633586E-03  7.32699924E-11 -8.07439830E-05  0.00000000E+00  6.92230817E-03
  6.89469174E-03  6.91674872E-03 -2.18565098E-11  0.00000000E+00  0.00000000E+00
  1.23442475E-05  9.64946393E-05 -3.99420372E-05  4.50900229E-05  0.00000000E+00
  9.84627884E-05 -2.60998039E-04 -5.47188387E-05  0.00000000E+00 -9.44063066E-06
 -9.78413485E-07 -1.40103675E-05  5.66101872E-05  0.00000000E+00  0.00000000E+00
  8.07232784E-06  3.09992316E-05  2.32590688E-02  5.35544990E-04 -3.37724727E-07
 -1.35580808E-04  0.00000000E+00  3.09892006E-03  1.35617217E-04  1.36086585E-03
  0.00000000E+00 -3.15009471E-04 -2.70968687E-04 -1.05384490E-04  7.72721749E-05
  0.00000000E+00  0.00000000E+00 -1.09294153E-06  5.93938647E-05 -2.29785825E-02
 -5.31379624E-04 -1.06760430E-06  1.34462216E-04  0.00000000E+00 -3.06747734E-03
  1.35608621E-04 -1.34241067E-03  0.00000000E+00  3.13416420E-04  2.68759227E-04
  1.04035129E-04  7.78145400E-05  0.00000000E+00  0.00000000E+00  1.03031962E-06
 -5.51024893E-05 -6.99451285E-01 -1.94211073E-02 -3.52485369E-04 -3.12880265E-04
  0.00000000E+00  8.23457584E-03  1.17453691E-03 -2.39096131E-04  0.00000000E+00
  1.34275005E-03  1.21876043E-03  1.65014248E-03  1.99731642E-04  0.00000000E+00
  0.00000000E+00  1.57133720E-04 -9.09413852E-04 -6.86760509E-08 -1.52052978E-07
 -1.15604670E-05  1.82798213E-07  0.00000000E+00  2.41216295E-06  2.88351736E-04
 -2.73629359E-06  0.00000000E+00  3.64597596E-05  1.27075190E-03 -1.82065698E-05
  0.00000000E+00 -1.97010169E-06 -1.60974748E-06 -1.55118761E-06  1.92805508E-04
  0.00000000E+00  0.00000000E+00  7.07800254E-01  1.96550375E-02 -3.57258946E-04
  3.16133766E-04  0.00000000E+00 -8.36276144E-03  1.19899090E-03  2.36749927E-04
  0.00000000E+00 -1.35562922E-03 -1.23220242E-03 -1.66837714E-03  2.02725737E-04
  0.00000000E+00  0.00000000E+00 -1.59248230E-04  9.21424901E-04  2.35462006E-02
  3.48947095E-04  6.15117433E-05 -9.35166531E-05  0.00000000E+00  2.63213499E-03
 -1.20390881E-07  1.54765365E-03  0.00000000E+00 -1.32500863E-04 -1.84569412E-04
 -1.13202011E-04 -4.61027848E-05  0.00000000E+00  0.00000000E+00 -5.31944840E-06
  3.61443332E-04  2.38209823E-02  3.55288684E-04 -6.15040839E-05 -9.51198277E-05
  0.00000000E+00  2.66871684E-03 -1.48952515E-06  1.56369999E-03  0.00000000E+00
 -1.36230162E-04 -1.87770637E-04 -1.14445329E-04  4.51808106E-05  0.00000000E+00
  0.00000000E+00 -5.33122478E-06  3.62127326E-04  7.07860473E-01  1.98335988E-02
  4.04503307E-04  2.75863322E-04  0.00000000E+00 -1.08540576E-02 -2.06816449E-03
 -1.96137193E-04  0.00000000E+00 -1.09369420E-03 -1.14036182E-03 -1.54709502E-03
 -2.53677633E-04  0.00000000E+00  0.00000000E+00 -1.79166332E-04  1.01787494E-03
 -1.15798160E-05 -2.56154864E-05  6.86120580E-08  3.08184902E-05  0.00000000E+00
  4.06550797E-04 -1.71079924E-06 -4.61277342E-04  0.00000000E+00  6.14612333E-03
 -7.53746238E-06 -3.06920695E-03  0.00000000E+00 -3.32096616E-04 -2.71298057E-04
 -2.61447082E-04 -1.14369463E-06  0.00000000E+00  0.00000000E+00  6.99512261E-01
  1.96017752E-02 -4.00292276E-04  2.72134125E-04  0.00000000E+00 -1.07555835E-02
  2.05408047E-03 -1.98964975E-04  0.00000000E+00 -1.07768433E-03 -1.12581987E-03
 -1.52740433E-03  2.51288882E-04  0.00000000E+00  0.00000000E+00 -1.77289014E-04
  1.00701357E-03  7.03433044E-01  1.96514900E-02 -8.11951346E-06  1.70897998E-04
  0.00000000E+00 -6.49677792E-03 -5.62380595E-04 -8.12730451E-04  0.00000000E+00
 -1.64796499E-03 -1.31466110E-03 -1.78977835E-03  2.50931321E-05  0.00000000E+00
  0.00000000E+00 -1.94468713E-04  1.21645250E-03  7.03498308E-01  1.96533220E-02
  8.14066572E-06  1.70924686E-04  0.00000000E+00 -6.49805962E-03  5.62183154E-04
 -8.12940848E-04  0.00000000E+00 -1.64804508E-03 -1.31474536E-03 -1.78992777E-03
 -2.50995672E-05  0.00000000E+00  0.00000000E+00 -1.94481807E-04  1.21653632E-03
 -2.40974636E-02 -8.04994168E-04 -4.96178798E-05  1.27952418E-04  0.00000000E+00
  2.40860194E-03  2.56470265E-04 -1.23877020E-03  0.00000000E+00 -7.04289123E-05
 -1.17977496E-04  5.74438459E-05 -2.22176008E-05  0.00000000E+00  0.00000000E+00
 -3.11940549E-05 -4.65870919E-05 -1.01253019E-05 -3.11526031E-05 -1.11004216E-09
 -4.29438453E-07  0.00000000E+00 -5.58249805E-04  9.68082942E-09  6.77709822E-05
  0.00000000E+00  9.57050211E-04 -7.96407704E-09 -5.42159153E-04  0.00000000E+00
  8.35992821E-05  2.05702698E-04 -5.98712464E-05  2.71149751E-11  0.00000000E+00
  0.00000000E+00 -2.40947658E-02 -8.04907139E-04  4.96069103E-05  1.27941702E-04
  0.00000000E+00  2.40816670E-03 -2.56347265E-04 -1.23861144E-03  0.00000000E+00
 -7.04080537E-05 -1.17956117E-04  5.74412163E-05  2.22227422E-05  0.00000000E+00
  0.00000000E+00 -3.11961973E-05 -4.65975928E-05  7.03830039E-01  1.97285455E-02
 -2.07948035E-04  2.69628301E-04  0.00000000E+00 -1.35637620E-02  2.00241252E-03
 -2.15938553E-03  0.00000000E+00 -8.22183494E-04 -9.28349138E-04 -1.60868372E-03
  3.25243177E-05  0.00000000E+00  0.00000000E+00 -1.45955994E-04  9.63891071E-04
 -7.03764772E-01 -1.97267251E-02 -2.07950382E-04 -2.69613986E-04  0.00000000E+00
  1.35631674E-02  2.00246918E-03  2.15930884E-03  0.00000000E+00  8.22033469E-04
  9.28225012E-04  1.60851802E-03  3.25253302E-05  0.00000000E+00  0.00000000E+00
  1.45936420E-04 -9.63776590E-04  2.35574465E-02  7.43248135E-04  1.14297602E-04
 -1.08335060E-04  0.00000000E+00 -4.49848765E-03 -1.27034144E-03  1.63602190E-03
  0.00000000E+00  2.35640168E-04  2.63967527E-04 -1.53021112E-05 -6.67561418E-05
  0.00000000E+00  0.00000000E+00 -1.78137214E-05 -9.97746491E-05 -4.70844550E-10
 -1.48548062E-09  2.42502305E-05 -1.01174832E-10  0.00000000E+00 -2.54183493E-08
 -2.07413338E-04  3.47781498E-09  0.00000000E+00  4.46896838E-08  1.64879321E-04
 -2.55219532E-08  0.00000000E+00  3.43673004E-09  9.02890467E-09 -2.97461222E-09
  3.77305586E-06  0.00000000E+00  0.00000000E+00 -2.35591926E-02 -7.43306087E-04
  1.14301609E-04  1.08345377E-04  0.00000000E+00  4.49869764E-03 -1.27036628E-03
 -1.63613322E-03  0.00000000E+00 -2.35646994E-04 -2.63980888E-04  1.53061538E-05
 -6.67545013E-05  0.00000000E+00  0.00000000E+00  1.78105511E-05  9.97717960E-05
 -3.38983212E-05 -2.75041668E-04  2.13449274E-04  1.95411901E-05  0.00000000E+00
  9.08324171E-04 -1.01428730E-03  1.45640035E-03  0.00000000E+00 -4.98790828E-05
  9.36611650E-05 -8.83433274E-05 -7.23912151E-06  0.00000000E+00  0.00000000E+00
  1.36537378E-04  7.48961818E-04 -3.38982711E-05 -2.75041763E-04 -2.13449253E-04
  1.95406544E-05  0.00000000E+00  9.08333316E-04  1.01428682E-03  1.45641900E-03
  0.00000000E+00 -4.98784958E-05  9.36616998E-05 -8.83432168E-05  7.23950547E-06
  0.00000000E+00  0.00000000E+00  1.36537978E-04  7.48968666E-04 -1.72324768E-04
  4.48634658E-04  2.16713227E-05 -2.13618318E-05  0.00000000E+00 -7.22281710E-04
 -2.09712437E-03  1.78561654E-04  0.00000000E+00 -3.50278634E-04 -3.15991604E-04
  1.00334958E-04 -2.28134506E-04  0.00000000E+00  0.00000000E+00 -1.52416201E-04
 -7.51248429E-04 -2.81778234E-01  1.03026330E+00 -1.04147066E-10 -4.98869753E-03
  0.00000000E+00  2.41547484E-02 -8.99190307E-10 -2.08173383E-03  0.00000000E+00
 -5.40125860E-03 -4.44743013E-10  6.45753590E-04  0.00000000E+00 -8.56099532E-04
 -8.54645945E-04 -1.54436276E-03  7.21309988E-10  0.00000000E+00  0.00000000E+00
 -1.72324658E-04  4.48634105E-04 -2.16712053E-05 -2.13627248E-05  0.00000000E+00
 -7.22264362E-04  2.09711397E-03  1.78556414E-04  0.00000000E+00 -3.50278766E-04
 -3.15991008E-04  1.00334782E-04  2.28134720E-04  0.00000000E+00  0.00000000E+00
 -1.52416216E-04 -7.51243861E-04 -1.28199286E-04 -7.63833367E-04  9.37385061E-05
 -1.66252652E-05  0.00000000E+00  9.79028259E-03 -5.30222611E-03  5.08611285E-03
  0.00000000E+00  1.46608374E-04  4.61262036E-05 -2.37190774E-04  6.17355151E-05
  0.00000000E+00  0.00000000E+00  2.80697966E-04  2.14669447E-03  1.28199649E-04
  7.63836028E-04  9.37379990E-05  1.66251420E-05  0.00000000E+00 -9.79032333E-03
 -5.30222044E-03 -5.08613183E-03  0.00000000E+00 -1.46608536E-04 -4.61280500E-05
  2.37191716E-04  6.17354610E-05  0.00000000E+00  0.00000000E+00 -2.80696710E-04
 -2.14669216E-03  1.37750970E-04 -7.02886791E-04  9.47163893E-05  4.79887189E-05
  0.00000000E+00  5.17969877E-03  4.86831076E-03 -4.85803959E-04  0.00000000E+00
  1.91301156E-04  6.28225178E-04 -1.92013301E-04  3.04505283E-04  0.00000000E+00
  0.00000000E+00  2.70062941E-04  6.88478983E-04 -2.35977650E-09  8.94225728E-09
  9.92815650E-01  1.30723766E-06  0.00000000E+00 -5.37580887E-09  2.45322252E-02
  3.31758729E-08  0.00000000E+00 -1.21506959E-08 -5.14933631E-03 -6.43083713E-10
  0.00000000E+00  8.43561991E-10 -1.43492421E-09  2.31097871E-09 -1.69639442E-03
  0.00000000E+00  0.00000000E+00 -1.37750717E-04  7.02884223E-04  9.47163772E-05
 -4.79906087E-05  0.00000000E+00 -5.17964897E-03  4.86829094E-03  4.85797119E-04
  0.00000000E+00 -1.91301318E-04 -6.28224127E-04  1.92012321E-04  3.04505060E-04
  0.00000000E+00  0.00000000E+00 -2.70063828E-04 -6.88474806E-04  4.19278210E-05
  3.22472169E-04 -2.32098508E-04 -2.52084219E-04  0.00000000E+00 -2.60858203E-03
  1.37280401E-03 -2.54611182E-03  0.00000000E+00  9.87230111E-05 -2.32762461E-04
  2.01518002E-05  9.22003749E-05  0.00000000E+00  0.00000000E+00 -1.42943162E-04
 -9.91186602E-04  4.19275605E-05  3.22470929E-04  2.32097787E-04 -2.52082822E-04
  0.00000000E+00 -2.60859018E-03 -1.37279898E-03 -2.54613944E-03  0.00000000E+00
  9.87229207E-05 -2.32762828E-04  2.01511431E-05 -9.22014362E-05  0.00000000E+00
  0.00000000E+00 -1.42944266E-04 -9.91197558E-04  7.34172604E-05 -8.39476817E-04
 -4.79806402E-05  1.18669772E-04  0.00000000E+00  4.83797292E-03  5.37808416E-03
 -1.54742631E-04  0.00000000E+00  4.48064660E-04  2.91433007E-05 -3.07078719E-04
  1.49504554E-04  0.00000000E+00  0.00000000E+00  6.14080418E-05  2.34167562E-03
 -1.71546514E-03  6.54748646E-03 -1.30774763E-06  9.93091582E-01  0.00000000E+00
 -4.05778526E-03 -2.99559571E-08  2.35737379E-02  0.00000000E+00 -5.27813422E-03
  6.16997554E-09 -2.41598925E-03  0.00000000E+00  9.05913226E-04 -5.13628910E-04
  1.66706493E-03  1.26031260E-09  0.00000000E+00  0.00000000E+00  7.34174723E-05
 -8.39477765E-04  4.79795265E-05  1.18671567E-04  0.00000000E+00  4.83795147E-03
 -5.37806965E-03 -1.54729009E-04  0.00000000E+00  4.48065256E-04  2.91443015E-05
 -3.07078921E-04 -1.49506293E-04  0.00000000E+00  0.00000000E+00  6.14082282E-05
  2.34166296E-03  0.00000000E+00  0.00000000E+00  0.00000000E+00  0.00000000E+00
 -2.70706134E-05  0.00000000E+00  0.00000000E+00  0.00000000E+00  1.58801638E-04
  0.00000000E+00  0.00000000E+00  0.00000000E+00  0.00000000E+00 -2.19769258E-05
  4.13849897E-05  0.00000000E+00  0.00000000E+00  0.00000000E+00  0.00000000E+00
  0.00000000E+00  0.00000000E+00 -2.70706996E-05  0.00000000E+00  0.00000000E+00
  0.00000000E+00  1.58801931E-04  0.00000000E+00  0.00000000E+00  0.00000000E+00
  0.00000000E+00  2.19771217E-05  4.13849572E-05  0.00000000E+00  0.00000000E+00
  0.00000000E+00  0.00000000E+00  0.00000000E+00  0.00000000E+00 -1.48372332E-04
  0.00000000E+00  0.00000000E+00  0.00000000E+00  2.90899150E-04  0.00000000E+00
  0.00000000E+00  0.00000000E+00  0.00000000E+00 -2.48779684E-04 -1.92190581E-04
  0.00000000E+00  0.00000000E+00  0.00000000E+00  0.00000000E+00  0.00000000E+00
  0.00000000E+00  9.93777040E-01  0.00000000E+00  0.00000000E+00  0.00000000E+00
  2.06883008E-02  0.00000000E+00  0.00000000E+00  0.00000000E+00 -5.07198099E-03
  0.00000000E+00  0.00000000E+00  0.00000000E+00  0.00000000E+00 -1.63973994E-10